# vtk DataFile Version 3.0
Cube
ASCII
DATASET POLYDATA

POINTS 8 float
0.0 0.0 0.0
1.0 0.0 0.0
0.0 1.0 0.0
1.0 1.0 0.0
0.0 0.0 1.0
1.0 0.0 1.0
0.0 1.0 1.0
1.0 1.0 1.0

POLYGONS 6 30
4 0 1 3 2
4 0 1 5 4
4 0 2 6 4
4 1 3 7 5
4 2 3 7 6
4 4 5 7 6

CELL_DATA 6
SCALARS cell_scalars float
LOOKUP_TABLE default
0.0
1.0
2.0
3.0
4.0
5.0
