# vtk DataFile Version 3.0
Triangulated cylindrical origami (original)
ASCII
DATASET POLYDATA
POINTS 4 float
1.600206 0.000000 0.662827
-1.600206 0.000000 0.662827
0.000000 -1.000000 0.000000
0.000000 1.000000 0.000000
POLYGONS 2 8
3 0 2 3
3 1 2 3
CELL_DATA 2
SCALARS cell_scalars float
LOOKUP_TABLE default
6.666667e-01
6.666667e-01
