# vtk DataFile Version 3.0
Triangulated cylindrical origami (original)
ASCII
DATASET POLYDATA
POINTS 4 float
1.531333 0.000000 0.809333
-1.531333 0.000000 0.809333
0.000000 -1.000000 0.000000
0.000000 1.000000 0.000000
POLYGONS 2 8
3 0 2 3
3 1 2 3
CELL_DATA 2
SCALARS cell_scalars float
LOOKUP_TABLE default
5.873016e-01
5.873016e-01
