# vtk DataFile Version 3.0
Triangulated cylindrical origami (original)
ASCII
DATASET POLYDATA
POINTS 4 float
1.079916 0.000000 1.354172
-1.079916 0.000000 1.354172
0.000000 -1.000000 0.000000
0.000000 1.000000 0.000000
POLYGONS 2 8
3 0 2 3
3 1 2 3
CELL_DATA 2
SCALARS cell_scalars float
LOOKUP_TABLE default
2.380952e-01
2.380952e-01
