# vtk DataFile Version 3.0
Triangulated cylindrical origami (original)
ASCII
DATASET POLYDATA
POINTS 4 float
0.859073 0.000000 0.109519
-0.859073 0.000000 0.109519
0.000000 -0.500000 0.000000
0.000000 0.500000 0.000000
POLYGONS 2 8
3 0 2 3
3 1 2 3
CELL_DATA 2
SCALARS cell_scalars float
LOOKUP_TABLE default
8.923679e-01
8.923679e-01
